 vasp.5.4.4.18Apr17-6-g9f103f2a35 (build Feb 18 2020 20:24:19) complex          
  
 executed on             LinuxIFC date 2022.04.10  16:28:10
 running on   48 total cores
 distrk:  each k-point on   48 cores,    1 groups
 distr:  one band on NCORES_PER_BAND=   1 cores,   48 groups


--------------------------------------------------------------------------------------------------------


 INCAR:
 POTCAR:    PAW_PBE Ca_sv 06Sep2000               
 POTCAR:    PAW_PBE S 06Sep2000                   
 POTCAR:    PAW_PBE O 08Apr2002                   
 POTCAR:    PAW_PBE H 15Jun2001                   

 ----------------------------------------------------------------------------- 
|                                                                             |
|           W    W    AA    RRRRR   N    N  II  N    N   GGGG   !!!           |
|           W    W   A  A   R    R  NN   N  II  NN   N  G    G  !!!           |
|           W    W  A    A  R    R  N N  N  II  N N  N  G       !!!           |
|           W WW W  AAAAAA  RRRRR   N  N N  II  N  N N  G  GGG   !            |
|           WW  WW  A    A  R   R   N   NN  II  N   NN  G    G                |
|           W    W  A    A  R    R  N    N  II  N    N   GGGG   !!!           |
|                                                                             |
|      For optimal performance we recommend to set                            |
|        NCORE= 4 - approx SQRT( number of cores)                             |
|      NCORE specifies how many cores store one orbital (NPAR=cpu/NCORE).     |
|      This setting can  greatly improve the performance of VASP for DFT.     |
|      The default,   NCORE=1            might be grossly inefficient         |
|      on modern multi-core architectures or massively parallel machines.     |
|      Do your own testing !!!!                                               |
|      Unfortunately you need to use the default for GW and RPA calculations. |
|      (for HF NCORE is supported but not extensively tested yet)             |
|                                                                             |
 ----------------------------------------------------------------------------- 

 POTCAR:    PAW_PBE Ca_sv 06Sep2000               
   VRHFIN =Ca: 3s3p4s                                                           
   LEXCH  = PE                                                                  
   EATOM  =  1006.0909 eV,   73.9456 Ry                                         
                                                                                
   TITEL  = PAW_PBE Ca_sv 06Sep2000                                             
   LULTRA =        F    use ultrasoft PP ?                                      
   IUNSCR =        1    unscreen: 0-lin 1-nonlin 2-no                           
   RPACOR =    2.000    partial core radius                                     
   POMASS =   40.078; ZVAL   =   10.000    mass and valenz                      
   RCORE  =    2.300    outmost cutoff radius                                   
   RWIGS  =    2.500; RWIGS  =    1.323    wigner-seitz radius (au A)           
   ENMAX  =  266.622; ENMIN  =  199.967 eV                                      
   RCLOC  =    1.808    cutoff for local pot                                    
   LCOR   =        T    correct aug charges                                     
   LPAW   =        T    paw PP                                                  
   EAUG   =  420.852                                                            
   RMAX   =    2.359    core radius for proj-oper                               
   RAUG   =    1.300    factor for augmentation sphere                          
   RDEP   =    2.392    radius for radial grids                                 
   RDEPT  =    1.987    core radius for aug-charge                              
                                                                                
   Atomic configuration                                                         
    7 entries                                                                   
     n  l   j            E        occ.                                          
     1  0  0.50     -3949.1705   2.0000                                         
     2  0  0.50      -414.3434   2.0000                                         
     2  1  1.50      -334.7047   6.0000                                         
     3  0  0.50       -47.0896   2.0000                                         
     4  0  0.50        -3.7663   2.0000                                         
     3  1  1.50       -28.0061   6.0000                                         
     3  2  1.50        -4.0817   0.0000                                         
   Description                                                                  
     l       E           TYP  RCUT    TYP  RCUT                                 
     0    -47.0896403     23  2.300                                             
     0     -3.7663320     23  2.300                                             
     1    -28.0060855     23  2.300                                             
     1      6.8029130     23  2.300                                             
     2     -4.0817478     23  2.300                                             
     2      0.4464412     23  2.300                                             
  local pseudopotential read in
  partial core-charges read in
  partial kinetic energy density read in
  atomic valenz-charges read in
  non local Contribution for L=           0  read in
    real space projection operators read in
  non local Contribution for L=           0  read in
    real space projection operators read in
  non local Contribution for L=           1  read in
    real space projection operators read in
  non local Contribution for L=           1  read in
    real space projection operators read in
  non local Contribution for L=           2  read in
    real space projection operators read in
  non local Contribution for L=           2  read in
    real space projection operators read in
    PAW grid and wavefunctions read in
 
   number of l-projection  operators is LMAX  =           6
   number of lm-projection operators is LMMAX =          18
 
 POTCAR:    PAW_PBE S 06Sep2000                   
   VRHFIN =S : s2p4                                                             
   LEXCH  = PE                                                                  
   EATOM  =   276.8230 eV,   20.3459 Ry                                         
                                                                                
   TITEL  = PAW_PBE S 06Sep2000                                                 
   LULTRA =        F    use ultrasoft PP ?                                      
   IUNSCR =        1    unscreen: 0-lin 1-nonlin 2-no                           
   RPACOR =    1.500    partial core radius                                     
   POMASS =   32.066; ZVAL   =    6.000    mass and valenz                      
   RCORE  =    1.900    outmost cutoff radius                                   
   RWIGS  =    2.200; RWIGS  =    1.164    wigner-seitz radius (au A)           
   ENMAX  =  258.689; ENMIN  =  194.016 eV                                      
   ICORE  =        2    local potential                                         
   LCOR   =        T    correct aug charges                                     
   LPAW   =        T    paw PP                                                  
   EAUG   =  335.092                                                            
   DEXC   =    0.000                                                            
   RMAX   =    1.942    core radius for proj-oper                               
   RAUG   =    1.300    factor for augmentation sphere                          
   RDEP   =    1.954    radius for radial grids                                 
   RDEPT  =    1.744    core radius for aug-charge                              
                                                                                
   Atomic configuration                                                         
    6 entries                                                                   
     n  l   j            E        occ.                                          
     1  0  0.50     -2405.8406   2.0000                                         
     2  0  0.50      -211.7007   2.0000                                         
     2  1  1.50      -156.4958   6.0000                                         
     3  0  0.50       -17.2562   2.0000                                         
     3  1  0.50        -7.0085   4.0000                                         
     3  2  1.50        -6.8029   0.0000                                         
   Description                                                                  
     l       E           TYP  RCUT    TYP  RCUT                                 
     0    -17.2561641     23  1.900                                             
     0    -15.8743224     23  1.900                                             
     1     -7.0085400     23  1.900                                             
     1     -2.7779785     23  1.900                                             
     2     -6.8029130     23  1.900                                             
  local pseudopotential read in
  partial core-charges read in
  partial kinetic energy density read in
  atomic valenz-charges read in
  non local Contribution for L=           0  read in
    real space projection operators read in
  non local Contribution for L=           0  read in
    real space projection operators read in
  non local Contribution for L=           1  read in
    real space projection operators read in
  non local Contribution for L=           1  read in
    real space projection operators read in
    PAW grid and wavefunctions read in
 
   number of l-projection  operators is LMAX  =           4
   number of lm-projection operators is LMMAX =           8
 
 POTCAR:    PAW_PBE O 08Apr2002                   
   VRHFIN =O: s2p4                                                              
   LEXCH  = PE                                                                  
   EATOM  =   432.3788 eV,   31.7789 Ry                                         
                                                                                
   TITEL  = PAW_PBE O 08Apr2002                                                 
   LULTRA =        F    use ultrasoft PP ?                                      
   IUNSCR =        1    unscreen: 0-lin 1-nonlin 2-no                           
   RPACOR =    1.200    partial core radius                                     
   POMASS =   16.000; ZVAL   =    6.000    mass and valenz                      
   RCORE  =    1.520    outmost cutoff radius                                   
   RWIGS  =    1.550; RWIGS  =    0.820    wigner-seitz radius (au A)           
   ENMAX  =  400.000; ENMIN  =  300.000 eV                                      
   ICORE  =        2    local potential                                         
   LCOR   =        T    correct aug charges                                     
   LPAW   =        T    paw PP                                                  
   EAUG   =  605.392                                                            
   DEXC   =    0.000                                                            
   RMAX   =    1.553    core radius for proj-oper                               
   RAUG   =    1.300    factor for augmentation sphere                          
   RDEP   =    1.550    radius for radial grids                                 
   RDEPT  =    1.329    core radius for aug-charge                              
                                                                                
   Atomic configuration                                                         
    4 entries                                                                   
     n  l   j            E        occ.                                          
     1  0  0.50      -514.6923   2.0000                                         
     2  0  0.50       -23.9615   2.0000                                         
     2  1  0.50        -9.0305   4.0000                                         
     3  2  1.50        -9.5241   0.0000                                         
   Description                                                                  
     l       E           TYP  RCUT    TYP  RCUT                                 
     0    -23.9615318     23  1.200                                             
     0     -9.5240782     23  1.200                                             
     1     -9.0304911     23  1.520                                             
     1      8.1634956     23  1.520                                             
     2     -9.5240782      7  1.500                                             
  local pseudopotential read in
  partial core-charges read in
  partial kinetic energy density read in
  kinetic energy density of atom read in
  atomic valenz-charges read in
  non local Contribution for L=           0  read in
    real space projection operators read in
  non local Contribution for L=           0  read in
    real space projection operators read in
  non local Contribution for L=           1  read in
    real space projection operators read in
  non local Contribution for L=           1  read in
    real space projection operators read in
    PAW grid and wavefunctions read in
 
   number of l-projection  operators is LMAX  =           4
   number of lm-projection operators is LMMAX =           8
 
 POTCAR:    PAW_PBE H 15Jun2001                   
   VRHFIN =H: ultrasoft test                                                    
   LEXCH  = PE                                                                  
   EATOM  =    12.4884 eV,    0.9179 Ry                                         
                                                                                
   TITEL  = PAW_PBE H 15Jun2001                                                 
   LULTRA =        F    use ultrasoft PP ?                                      
   IUNSCR =        0    unscreen: 0-lin 1-nonlin 2-no                           
   RPACOR =    0.000    partial core radius                                     
   POMASS =    1.000; ZVAL   =    1.000    mass and valenz                      
   RCORE  =    1.100    outmost cutoff radius                                   
   RWIGS  =    0.700; RWIGS  =    0.370    wigner-seitz radius (au A)           
   ENMAX  =  250.000; ENMIN  =  200.000 eV                                      
   RCLOC  =    0.701    cutoff for local pot                                    
   LCOR   =        T    correct aug charges                                     
   LPAW   =        T    paw PP                                                  
   EAUG   =  400.000                                                            
   RMAX   =    1.123    core radius for proj-oper                               
   RAUG   =    1.200    factor for augmentation sphere                          
   RDEP   =    1.112    radius for radial grids                                 
   RDEPT  =    0.926    core radius for aug-charge                              
                                                                                
   Atomic configuration                                                         
    2 entries                                                                   
     n  l   j            E        occ.                                          
     1  0  0.50        -6.4927   1.0000                                         
     2  1  0.50        -3.4015   0.0000                                         
   Description                                                                  
     l       E           TYP  RCUT    TYP  RCUT                                 
     0     -6.4927494     23  1.100                                             
     0      6.8029130     23  1.100                                             
     1     -4.0817478     23  1.100                                             
  local pseudopotential read in
  atomic valenz-charges read in
  non local Contribution for L=           0  read in
    real space projection operators read in
  non local Contribution for L=           0  read in
    real space projection operators read in
  non local Contribution for L=           1  read in
    real space projection operators read in
    PAW grid and wavefunctions read in
 
   number of l-projection  operators is LMAX  =           3
   number of lm-projection operators is LMMAX =           5
 

 ----------------------------------------------------------------------------- 
|                                                                             |
|  ADVICE TO THIS USER RUNNING 'VASP/VAMP'   (HEAR YOUR MASTER'S VOICE ...):  |
|                                                                             |
|      You have a (more or less) 'large supercell' and for larger cells       |
|      it might be more efficient to use real space projection opertators     |
|      So try LREAL= Auto  in the INCAR   file.                               |
|      Mind:          For very  accurate calculation you might also keep the  |
|      reciprocal projection scheme          (i.e. LREAL=.FALSE.)             |
|                                                                             |
 ----------------------------------------------------------------------------- 

  PAW_PBE Ca_sv 06Sep2000               :
 energy of atom  1       EATOM=-1006.0909
 kinetic energy error for atom=    0.0022 (will be added to EATOM!!)
  PAW_PBE S 06Sep2000                   :
 energy of atom  2       EATOM= -276.8230
 kinetic energy error for atom=    0.0016 (will be added to EATOM!!)
  PAW_PBE O 08Apr2002                   :
 energy of atom  3       EATOM= -432.3788
 kinetic energy error for atom=    0.0208 (will be added to EATOM!!)
  PAW_PBE H 15Jun2001                   :
 energy of atom  4       EATOM=  -12.4884
 kinetic energy error for atom=    0.0014 (will be added to EATOM!!)
 
 
 POSCAR: Mode = 0062, Disp. # = 001, Step =  -0.0
  positions in direct lattice
  No initial velocities read in
 exchange correlation table for  LEXCH =        8
   RHO(1)=    0.500       N(1)  =     2000
   RHO(2)=  100.500       N(2)  =     4000
 


--------------------------------------------------------------------------------------------------------


 ion  position               nearest neighbor table
   1  0.833  0.167  0.250-  15 2.34  13 2.34   7 2.38   5 2.38   6 2.55   8 2.55
   2  0.167  0.833  0.750-  16 2.34  14 2.34   8 2.38   6 2.38   7 2.55   5 2.55
   3  0.672  0.328  0.750-   7 1.48   5 1.48  11 1.49   9 1.49
   4  0.328  0.672  0.250-   8 1.48   6 1.48  12 1.49  10 1.49
   5  0.813  0.358  0.592-   3 1.48   1 2.38   2 2.55
   6  0.187  0.642  0.408-   4 1.48   2 2.38   1 2.55
   7  0.642  0.187  0.908-   3 1.48   1 2.38   2 2.55
   8  0.358  0.813  0.092-   4 1.48   2 2.38   1 2.55
   9  0.817  0.586  0.920-   3 1.49
  10  0.183  0.414  0.080-   4 1.49
  11  0.414  0.183  0.580-   3 1.49
  12  0.586  0.817  0.420-   4 1.49
  13  0.717  0.851  0.919-  21 0.98  17 0.99   1 2.34
  14  0.283  0.149  0.081-  22 0.98  18 0.99   2 2.34
  15  0.149  0.283  0.581-  23 0.98  19 0.99   1 2.34
  16  0.851  0.717  0.419-  24 0.98  20 0.99   2 2.34
  17  0.653  0.827  0.738-  13 0.99
  18  0.347  0.173  0.262-  14 0.99
  19  0.173  0.347  0.762-  15 0.99
  20  0.827  0.653  0.238-  16 0.99
  21  0.747  0.753  0.909-  13 0.98
  22  0.253  0.247  0.091-  14 0.98
  23  0.247  0.253  0.591-  15 0.98
  24  0.753  0.747  0.409-  16 0.98
 
  Warning from LATTYP: Got some problem with cell dimensions!
  Tried to take original basis but could not verify dimensions!
  LATTYP: Found a base centered monoclinic cell.
 ALAT       =     6.3248090984
 B/A-ratio  =     2.3734261303
 C/A-ratio  =     1.8129076419
 COS(beta)  =    -0.3470889405
  
  Lattice vectors:
  
 A1 = (   3.1623411915,   7.5057335768,  -0.0200235767)
 A2 = (   3.1623411211,  -7.5057336064,  -0.0200235767)
 A3 = ( -10.2823353268,   0.0000000481,  -5.0743960706)


Analysis of symmetry for initial positions (statically):
=====================================================================
 Subroutine PRICEL returns:
 Original cell was already a primitive cell.
 

 Routine SETGRP: Setting up the symmetry group for a 
 base centered monoclinic supercell.


 Subroutine GETGRP returns: Found  4 space group operations
 (whereof  2 operations were pure point group operations)
 out of a pool of  4 trial point group operations.


The static configuration has the point symmetry S_2 .
 The point group associated with its full space group is C_2h.


Analysis of symmetry for dynamics (positions and initial velocities):
=====================================================================
 Subroutine PRICEL returns:
 Original cell was already a primitive cell.
 

 Routine SETGRP: Setting up the symmetry group for a 
 base centered monoclinic supercell.


 Subroutine GETGRP returns: Found  4 space group operations
 (whereof  2 operations were pure point group operations)
 out of a pool of  4 trial point group operations.


The dynamic configuration has the point symmetry S_2 .
 The point group associated with its full space group is C_2h.


 Subroutine INISYM returns: Found  4 space group operations
 (whereof  2 operations are pure point group operations),
 and found     1 'primitive' translations

 
 
 KPOINTS: Automatic mesh                          

Automatic generation of k-mesh.
Space group operators:
 irot       det(A)        alpha          n_x          n_y          n_z        tau_x        tau_y        tau_z
    1     1.000000     0.000000     1.000000     0.000000     0.000000     0.000000     0.000000     0.000000
    2    -1.000000     0.000000     1.000000     0.000000     0.000000     0.000000     0.000000     0.000000
    3     1.000000   180.000000    -0.000000    -1.000000     0.000000    -1.000000    -1.000000    -0.500000
    4    -1.000000   180.000000    -0.000000    -1.000000     0.000000    -1.000000    -1.000000    -0.500000
 
 Subroutine IBZKPT returns following result:
 ===========================================
 
 Found     39 irreducible k-points:
 
 Following reciprocal coordinates:
            Coordinates               Weight
  0.000000  0.000000  0.000000      1.000000
  0.200000 -0.000000 -0.000000      4.000000
  0.400000 -0.000000 -0.000000      4.000000
  0.200000  0.200000 -0.000000      2.000000
  0.400000  0.200000 -0.000000      4.000000
 -0.400000  0.200000  0.000000      4.000000
 -0.200000  0.200000  0.000000      2.000000
  0.400000  0.400000 -0.000000      2.000000
 -0.400000  0.400000  0.000000      2.000000
  0.000000 -0.000000  0.200000      2.000000
  0.200000 -0.000000  0.200000      4.000000
  0.400000 -0.000000  0.200000      4.000000
 -0.400000  0.000000  0.200000      4.000000
 -0.200000  0.000000  0.200000      4.000000
  0.200000  0.200000  0.200000      2.000000
  0.400000  0.200000  0.200000      4.000000
 -0.400000  0.200000  0.200000      4.000000
 -0.200000  0.200000  0.200000      4.000000
  0.400000  0.400000  0.200000      2.000000
 -0.400000  0.400000  0.200000      4.000000
 -0.200000  0.400000  0.200000      4.000000
 -0.400000 -0.400000  0.200000      2.000000
 -0.200000 -0.400000  0.200000      4.000000
 -0.200000 -0.200000  0.200000      2.000000
  0.000000 -0.000000  0.400000      2.000000
  0.200000 -0.000000  0.400000      4.000000
  0.400000 -0.000000  0.400000      4.000000
 -0.400000  0.000000  0.400000      4.000000
 -0.200000  0.000000  0.400000      4.000000
  0.200000  0.200000  0.400000      2.000000
  0.400000  0.200000  0.400000      4.000000
 -0.400000  0.200000  0.400000      4.000000
 -0.200000  0.200000  0.400000      4.000000
  0.400000  0.400000  0.400000      2.000000
 -0.400000  0.400000  0.400000      4.000000
 -0.200000  0.400000  0.400000      4.000000
 -0.400000 -0.400000  0.400000      2.000000
 -0.200000 -0.400000  0.400000      4.000000
 -0.200000 -0.200000  0.400000      2.000000
 
 Following cartesian coordinates:
            Coordinates               Weight
  0.000000  0.000000  0.000000      1.000000
  0.031714 -0.013323  0.014564      4.000000
  0.063429 -0.026646  0.029128      4.000000
  0.063429 -0.000000  0.029128      2.000000
  0.095143 -0.013323  0.043691      4.000000
 -0.031714  0.039969 -0.014564      4.000000
  0.000000  0.026646 -0.000000      2.000000
  0.126857 -0.000000  0.058255      2.000000
  0.000000  0.053293 -0.000000      2.000000
  0.000246 -0.000000  0.038914      2.000000
  0.031961 -0.013323  0.053478      4.000000
  0.063675 -0.026646  0.068042      4.000000
 -0.063182  0.026646  0.009787      4.000000
 -0.031468  0.013323  0.024351      4.000000
  0.063675 -0.000000  0.068042      2.000000
  0.095389 -0.013323  0.082606      4.000000
 -0.031468  0.039969  0.024351      4.000000
  0.000246  0.026646  0.038914      4.000000
  0.127104 -0.000000  0.097169      2.000000
  0.000246  0.053293  0.038914      4.000000
  0.031961  0.039969  0.053478      4.000000
 -0.126611  0.000000 -0.019341      2.000000
 -0.094897 -0.013323 -0.004777      4.000000
 -0.063182  0.000000  0.009787      2.000000
  0.000493 -0.000000  0.077829      2.000000
  0.032207 -0.013323  0.092392      4.000000
  0.063922 -0.026646  0.106956      4.000000
 -0.062936  0.026646  0.048701      4.000000
 -0.031222  0.013323  0.063265      4.000000
  0.063922 -0.000000  0.106956      2.000000
  0.095636 -0.013323  0.121520      4.000000
 -0.031222  0.039969  0.063265      4.000000
  0.000493  0.026646  0.077829      4.000000
  0.127350 -0.000000  0.136084      2.000000
  0.000493  0.053293  0.077829      4.000000
  0.032207  0.039969  0.092392      4.000000
 -0.126365  0.000000  0.019573      2.000000
 -0.094650 -0.013323  0.034137      4.000000
 -0.062936  0.000000  0.048701      2.000000
 
 
 Subroutine IBZKPT_HF returns following result:
 ==============================================
 
 Found    125 k-points in 1st BZ
 the following    125 k-points will be used (e.g. in the exchange kernel)
 Following reciprocal coordinates:   # in IRBZ
  0.000000  0.000000  0.000000    0.00800000   1 t-inv F
  0.200000 -0.000000 -0.000000    0.00800000   2 t-inv F
  0.400000 -0.000000 -0.000000    0.00800000   3 t-inv F
  0.200000  0.200000 -0.000000    0.00800000   4 t-inv F
  0.400000  0.200000 -0.000000    0.00800000   5 t-inv F
 -0.400000  0.200000  0.000000    0.00800000   6 t-inv F
 -0.200000  0.200000  0.000000    0.00800000   7 t-inv F
  0.400000  0.400000 -0.000000    0.00800000   8 t-inv F
 -0.400000  0.400000  0.000000    0.00800000   9 t-inv F
  0.000000 -0.000000  0.200000    0.00800000  10 t-inv F
  0.200000 -0.000000  0.200000    0.00800000  11 t-inv F
  0.400000 -0.000000  0.200000    0.00800000  12 t-inv F
 -0.400000  0.000000  0.200000    0.00800000  13 t-inv F
 -0.200000  0.000000  0.200000    0.00800000  14 t-inv F
  0.200000  0.200000  0.200000    0.00800000  15 t-inv F
  0.400000  0.200000  0.200000    0.00800000  16 t-inv F
 -0.400000  0.200000  0.200000    0.00800000  17 t-inv F
 -0.200000  0.200000  0.200000    0.00800000  18 t-inv F
  0.400000  0.400000  0.200000    0.00800000  19 t-inv F
 -0.400000  0.400000  0.200000    0.00800000  20 t-inv F
 -0.200000  0.400000  0.200000    0.00800000  21 t-inv F
 -0.400000 -0.400000  0.200000    0.00800000  22 t-inv F
 -0.200000 -0.400000  0.200000    0.00800000  23 t-inv F
 -0.200000 -0.200000  0.200000    0.00800000  24 t-inv F
  0.000000 -0.000000  0.400000    0.00800000  25 t-inv F
  0.200000 -0.000000  0.400000    0.00800000  26 t-inv F
  0.400000 -0.000000  0.400000    0.00800000  27 t-inv F
 -0.400000  0.000000  0.400000    0.00800000  28 t-inv F
 -0.200000  0.000000  0.400000    0.00800000  29 t-inv F
  0.200000  0.200000  0.400000    0.00800000  30 t-inv F
  0.400000  0.200000  0.400000    0.00800000  31 t-inv F
 -0.400000  0.200000  0.400000    0.00800000  32 t-inv F
 -0.200000  0.200000  0.400000    0.00800000  33 t-inv F
  0.400000  0.400000  0.400000    0.00800000  34 t-inv F
 -0.400000  0.400000  0.400000    0.00800000  35 t-inv F
 -0.200000  0.400000  0.400000    0.00800000  36 t-inv F
 -0.400000 -0.400000  0.400000    0.00800000  37 t-inv F
 -0.200000 -0.400000  0.400000    0.00800000  38 t-inv F
 -0.200000 -0.200000  0.400000    0.00800000  39 t-inv F
 -0.200000  0.000000  0.000000    0.00800000   2 t-inv F
  0.000000 -0.200000  0.000000    0.00800000   2 t-inv F
 -0.000000  0.200000 -0.000000    0.00800000   2 t-inv F
 -0.400000  0.000000  0.000000    0.00800000   3 t-inv F
  0.000000 -0.400000  0.000000    0.00800000   3 t-inv F
 -0.000000  0.400000 -0.000000    0.00800000   3 t-inv F
 -0.200000 -0.200000  0.000000    0.00800000   4 t-inv F
 -0.400000 -0.200000  0.000000    0.00800000   5 t-inv F
 -0.200000 -0.400000  0.000000    0.00800000   5 t-inv F
  0.200000  0.400000 -0.000000    0.00800000   5 t-inv F
  0.400000 -0.200000 -0.000000    0.00800000   6 t-inv F
 -0.200000  0.400000 -0.000000    0.00800000   6 t-inv F
  0.200000 -0.400000  0.000000    0.00800000   6 t-inv F
  0.200000 -0.200000 -0.000000    0.00800000   7 t-inv F
 -0.400000 -0.400000  0.000000    0.00800000   8 t-inv F
  0.400000 -0.400000 -0.000000    0.00800000   9 t-inv F
 -0.000000  0.000000 -0.200000    0.00800000  10 t-inv F
 -0.200000  0.000000 -0.200000    0.00800000  11 t-inv F
  0.000000 -0.200000 -0.200000    0.00800000  11 t-inv F
 -0.000000  0.200000  0.200000    0.00800000  11 t-inv F
 -0.400000  0.000000 -0.200000    0.00800000  12 t-inv F
  0.000000 -0.400000 -0.200000    0.00800000  12 t-inv F
 -0.000000  0.400000  0.200000    0.00800000  12 t-inv F
  0.400000 -0.000000 -0.200000    0.00800000  13 t-inv F
 -0.000000  0.400000 -0.200000    0.00800000  13 t-inv F
  0.000000 -0.400000  0.200000    0.00800000  13 t-inv F
  0.200000 -0.000000 -0.200000    0.00800000  14 t-inv F
 -0.000000  0.200000 -0.200000    0.00800000  14 t-inv F
  0.000000 -0.200000  0.200000    0.00800000  14 t-inv F
 -0.200000 -0.200000 -0.200000    0.00800000  15 t-inv F
 -0.400000 -0.200000 -0.200000    0.00800000  16 t-inv F
 -0.200000 -0.400000 -0.200000    0.00800000  16 t-inv F
  0.200000  0.400000  0.200000    0.00800000  16 t-inv F
  0.400000 -0.200000 -0.200000    0.00800000  17 t-inv F
 -0.200000  0.400000 -0.200000    0.00800000  17 t-inv F
  0.200000 -0.400000  0.200000    0.00800000  17 t-inv F
  0.200000 -0.200000 -0.200000    0.00800000  18 t-inv F
 -0.200000  0.200000 -0.200000    0.00800000  18 t-inv F
  0.200000 -0.200000  0.200000    0.00800000  18 t-inv F
 -0.400000 -0.400000 -0.200000    0.00800000  19 t-inv F
  0.400000 -0.400000 -0.200000    0.00800000  20 t-inv F
 -0.400000  0.400000 -0.200000    0.00800000  20 t-inv F
  0.400000 -0.400000  0.200000    0.00800000  20 t-inv F
  0.200000 -0.400000 -0.200000    0.00800000  21 t-inv F
 -0.400000  0.200000 -0.200000    0.00800000  21 t-inv F
  0.400000 -0.200000  0.200000    0.00800000  21 t-inv F
  0.400000  0.400000 -0.200000    0.00800000  22 t-inv F
  0.200000  0.400000 -0.200000    0.00800000  23 t-inv F
  0.400000  0.200000 -0.200000    0.00800000  23 t-inv F
 -0.400000 -0.200000  0.200000    0.00800000  23 t-inv F
  0.200000  0.200000 -0.200000    0.00800000  24 t-inv F
 -0.000000  0.000000 -0.400000    0.00800000  25 t-inv F
 -0.200000  0.000000 -0.400000    0.00800000  26 t-inv F
  0.000000 -0.200000 -0.400000    0.00800000  26 t-inv F
 -0.000000  0.200000  0.400000    0.00800000  26 t-inv F
 -0.400000  0.000000 -0.400000    0.00800000  27 t-inv F
  0.000000 -0.400000 -0.400000    0.00800000  27 t-inv F
 -0.000000  0.400000  0.400000    0.00800000  27 t-inv F
  0.400000 -0.000000 -0.400000    0.00800000  28 t-inv F
 -0.000000  0.400000 -0.400000    0.00800000  28 t-inv F
  0.000000 -0.400000  0.400000    0.00800000  28 t-inv F
  0.200000 -0.000000 -0.400000    0.00800000  29 t-inv F
 -0.000000  0.200000 -0.400000    0.00800000  29 t-inv F
  0.000000 -0.200000  0.400000    0.00800000  29 t-inv F
 -0.200000 -0.200000 -0.400000    0.00800000  30 t-inv F
 -0.400000 -0.200000 -0.400000    0.00800000  31 t-inv F
 -0.200000 -0.400000 -0.400000    0.00800000  31 t-inv F
  0.200000  0.400000  0.400000    0.00800000  31 t-inv F
  0.400000 -0.200000 -0.400000    0.00800000  32 t-inv F
 -0.200000  0.400000 -0.400000    0.00800000  32 t-inv F
  0.200000 -0.400000  0.400000    0.00800000  32 t-inv F
  0.200000 -0.200000 -0.400000    0.00800000  33 t-inv F
 -0.200000  0.200000 -0.400000    0.00800000  33 t-inv F
  0.200000 -0.200000  0.400000    0.00800000  33 t-inv F
 -0.400000 -0.400000 -0.400000    0.00800000  34 t-inv F
  0.400000 -0.400000 -0.400000    0.00800000  35 t-inv F
 -0.400000  0.400000 -0.400000    0.00800000  35 t-inv F
  0.400000 -0.400000  0.400000    0.00800000  35 t-inv F
  0.200000 -0.400000 -0.400000    0.00800000  36 t-inv F
 -0.400000  0.200000 -0.400000    0.00800000  36 t-inv F
  0.400000 -0.200000  0.400000    0.00800000  36 t-inv F
  0.400000  0.400000 -0.400000    0.00800000  37 t-inv F
  0.200000  0.400000 -0.400000    0.00800000  38 t-inv F
  0.400000  0.200000 -0.400000    0.00800000  38 t-inv F
 -0.400000 -0.200000  0.400000    0.00800000  38 t-inv F
  0.200000  0.200000 -0.400000    0.00800000  39 t-inv F


--------------------------------------------------------------------------------------------------------




 Dimension of arrays:
   k-points           NKPTS =     39   k-points in BZ     NKDIM =     39   number of bands    NBANDS=     96
   number of dos      NEDOS =    301   number of ions     NIONS =     24
   non local maximal  LDIM  =      6   non local SUM 2l+1 LMDIM =     18
   total plane-waves  NPLWV = 172032
   max r-space proj   IRMAX =      1   max aug-charges    IRDMAX=  33837
   dimension x,y,z NGX =    64 NGY =   64 NGZ =   42
   dimension x,y,z NGXF=   128 NGYF=  128 NGZF=   84
   support grid    NGXF=   128 NGYF=  128 NGZF=   84
   ions per type =               2   2  12   8
   NGX,Y,Z   is equivalent  to a cutoff of  13.06, 13.06, 12.31 a.u.
   NGXF,Y,Z  is equivalent  to a cutoff of  26.13, 26.13, 24.62 a.u.

 SYSTEM =  unknown system                          
 POSCAR =  Mode = 0062, Disp. # = 001, Step =  -0.0

 Startparameter for this run:
   NWRITE =      2    write-flag & timer
   PREC   = accura    normal or accurate (medium, high low for compatibility)
   ISTART =      0    job   : 0-new  1-cont  2-samecut
   ICHARG =      2    charge: 1-file 2-atom 10-const
   ISPIN  =      1    spin polarized calculation?
   LNONCOLLINEAR =      F non collinear calculations
   LSORBIT =      F    spin-orbit coupling
   INIWAV =      1    electr: 0-lowe 1-rand  2-diag
   LASPH  =      T    aspherical Exc in radial PAW
   METAGGA=      F    non-selfconsistent MetaGGA calc.

 Electronic Relaxation 1
   ENCUT  =  520.0 eV  38.22 Ry    6.18 a.u.  15.14 15.14 10.55*2*pi/ulx,y,z
   ENINI  =  520.0     initial cutoff
   ENAUG  =  605.4 eV  augmentation charge cutoff
   NELM   =    100;   NELMIN=  2; NELMDL= -5     # of ELM steps 
   EDIFF  = 0.1E-07   stopping-criterion for ELM
   LREAL  =      F    real-space projection
   NLSPLINE    = F    spline interpolate recip. space projectors
   LCOMPAT=      F    compatible to vasp.4.4
   GGA_COMPAT  = T    GGA compatible to vasp.4.4-vasp.4.6
   LMAXPAW     = -100 max onsite density
   LMAXMIX     =    2 max onsite mixed and CHGCAR
   VOSKOWN=      0    Vosko Wilk Nusair interpolation
   ROPT   =    0.00000   0.00000   0.00000   0.00000
 Ionic relaxation
   EDIFFG = 0.1E-06   stopping-criterion for IOM
   NSW    =      0    number of steps for IOM
   NBLOCK =      1;   KBLOCK =      1    inner block; outer block 
   IBRION =     -1    ionic relax: 0-MD 1-quasi-New 2-CG
   NFREE  =      0    steps in history (QN), initial steepest desc. (CG)
   ISIF   =      2    stress and relaxation
   IWAVPR =     10    prediction:  0-non 1-charg 2-wave 3-comb
   ISYM   =      2    0-nonsym 1-usesym 2-fastsym
   LCORR  =      T    Harris-Foulkes like correction to forces

   POTIM  = 0.5000    time-step for ionic-motion
   TEIN   =    0.0    initial temperature
   TEBEG  =    0.0;   TEEND  =   0.0 temperature during run
   SMASS  =  -3.00    Nose mass-parameter (am)
   estimated Nose-frequenzy (Omega)   =  0.10E-29 period in steps =****** mass=  -0.152E-26a.u.
   SCALEE = 1.0000    scale energy and forces
   NPACO  =    256;   APACO  = 16.0  distance and # of slots for P.C.
   PSTRESS=    0.0 pullay stress

  Mass of Ions in am
   POMASS =  40.08 32.07 16.00  1.00
  Ionic Valenz
   ZVAL   =  10.00  6.00  6.00  1.00
  Atomic Wigner-Seitz radii
   RWIGS  =  -1.00 -1.00 -1.00 -1.00
  virtual crystal weights 
   VCA    =   1.00  1.00  1.00  1.00
   NELECT =     112.0000    total number of electrons
   NUPDOWN=      -1.0000    fix difference up-down

 DOS related values:
   EMIN   =  10.00;   EMAX   =-10.00  energy-range for DOS
   EFERMI =   0.00
   ISMEAR =     0;   SIGMA  =   0.01  broadening in eV -4-tet -1-fermi 0-gaus

 Electronic relaxation 2 (details)
   IALGO  =     38    algorithm
   LDIAG  =      T    sub-space diagonalisation (order eigenvalues)
   LSUBROT=      F    optimize rotation matrix (better conditioning)
   TURBO    =      0    0=normal 1=particle mesh
   IRESTART =      0    0=no restart 2=restart with 2 vectors
   NREBOOT  =      0    no. of reboots
   NMIN     =      0    reboot dimension
   EREF     =   0.00    reference energy to select bands
   IMIX   =      4    mixing-type and parameters
     AMIX     =   0.40;   BMIX     =  1.00
     AMIX_MAG =   1.60;   BMIX_MAG =  1.00
     AMIN     =   0.10
     WC   =   100.;   INIMIX=   1;  MIXPRE=   1;  MAXMIX= -45

 Intra band minimization:
   WEIMIN = 0.0000     energy-eigenvalue tresh-hold
   EBREAK =  0.26E-10  absolut break condition
   DEPER  =   0.30     relativ break condition  

   TIME   =   0.40     timestep for ELM

  volume/ion in A,a.u.               =      10.17        68.60
  Fermi-wavevector in a.u.,A,eV,Ry     =   1.262883  2.386503 21.699578  1.594874
  Thomas-Fermi vector in A             =   2.396269
 
 Write flags
   LWAVE        =      F    write WAVECAR
   LDOWNSAMPLE  =      F    k-point downsampling of WAVECAR
   LCHARG       =      F    write CHGCAR
   LVTOT        =      F    write LOCPOT, total local potential
   LVHAR        =      F    write LOCPOT, Hartree potential only
   LELF         =      F    write electronic localiz. function (ELF)
   LORBIT       =      0    0 simple, 1 ext, 2 COOP (PROOUT), +10 PAW based schemes


 Dipole corrections
   LMONO  =      F    monopole corrections only (constant potential shift)
   LDIPOL =      F    correct potential (dipole corrections)
   IDIPOL =      0    1-x, 2-y, 3-z, 4-all directions 
   EPSILON=  1.0000000 bulk dielectric constant

 Exchange correlation treatment:
   GGA     =    --    GGA type
   LEXCH   =     8    internal setting for exchange type
   VOSKOWN=      0    Vosko Wilk Nusair interpolation
   LHFCALC =     F    Hartree Fock is set to
   LHFONE  =     F    Hartree Fock one center treatment
   AEXX    =    0.0000 exact exchange contribution

 Linear response parameters
   LEPSILON=     T    determine dielectric tensor
   LRPA    =     F    only Hartree local field effects (RPA)
   LNABLA  =     F    use nabla operator in PAW spheres
   LVEL    =     F    velocity operator in full k-point grid
   LINTERFAST=   F  fast interpolation
   KINTER  =     0    interpolate to denser k-point grid
   CSHIFT  =0.1000    complex shift for real part using Kramers Kronig
   OMEGAMAX=  -1.0    maximum frequency
   DEG_THRESHOLD= 0.2000000E-02 threshold for treating states as degnerate
   RTIME   =   -0.100 relaxation time in fs
  (WPLASMAI=    0.000 imaginary part of plasma frequency in eV, 0.658/RTIME)
   DFIELD  = 0.0000000 0.0000000 0.0000000 field for delta impulse in time
 
 Orbital magnetization related:
   ORBITALMAG=     F  switch on orbital magnetization
   LCHIMAG   =     F  perturbation theory with respect to B field
   DQ        =  0.001000  dq finite difference perturbation B field
   LLRAUG    =     F  two centre corrections for induced B field



--------------------------------------------------------------------------------------------------------


 Static calculation
 charge density and potential will be updated during run
 non-spin polarized calculation
 Variant of blocked Davidson
 Davidson routine will perform the subspace rotation
 perform sub-space diagonalisation
    after iterative eigenvector-optimisation
 modified Broyden-mixing scheme, WC =      100.0
 initial mixing is a Kerker type mixing with AMIX =  0.4000 and BMIX =      1.0000
 Hartree-type preconditioning will be used
 using additional bands           40
 reciprocal scheme for non local part
 use partial core corrections
 calculate Harris-corrections to forces 
   (improved forces if not selfconsistent)
 use gradient corrections 
 use of overlap-Matrix (Vanderbilt PP)
 Gauss-broadening in eV      SIGMA  =   0.01


--------------------------------------------------------------------------------------------------------


  energy-cutoff  :      520.00
  volume of cell :      243.98
      direct lattice vectors                 reciprocal lattice vectors
     3.162341121 -7.505733606 -0.020023577     0.158571788 -0.066615741  0.072818852
     3.162341192  7.505733577 -0.020023577     0.158571789  0.066615740  0.072818852
    -2.367029299  0.000000011  5.154490378     0.001232003 -0.000000000  0.194571357

  length of vectors
     8.144743046  8.144743046  5.672001300     0.186775947  0.186775947  0.194575257


 
 k-points in units of 2pi/SCALE and weight: Automatic mesh                          
   0.00000000  0.00000000  0.00000000       0.008
   0.03171436 -0.01332315  0.01456377       0.032
   0.06342872 -0.02664630  0.02912754       0.032
   0.06342872 -0.00000000  0.02912754       0.016
   0.09514307 -0.01332315  0.04369131       0.032
  -0.03171436  0.03996944 -0.01456377       0.032
   0.00000000  0.02664630 -0.00000000       0.016
   0.12685743 -0.00000000  0.05825508       0.016
   0.00000000  0.05329259 -0.00000000       0.016
   0.00024640 -0.00000000  0.03891427       0.016
   0.03196076 -0.01332315  0.05347804       0.032
   0.06367512 -0.02664630  0.06804181       0.032
  -0.06318231  0.02664630  0.00978673       0.032
  -0.03146796  0.01332315  0.02435050       0.032
   0.06367512 -0.00000000  0.06804181       0.016
   0.09538947 -0.01332315  0.08260558       0.032
  -0.03146796  0.03996944  0.02435050       0.032
   0.00024640  0.02664630  0.03891427       0.032
   0.12710383 -0.00000000  0.09716935       0.016
   0.00024640  0.05329259  0.03891427       0.032
   0.03196076  0.03996944  0.05347804       0.032
  -0.12661103  0.00000000 -0.01934081       0.016
  -0.09489667 -0.01332315 -0.00477704       0.032
  -0.06318231  0.00000000  0.00978673       0.016
   0.00049280 -0.00000000  0.07782854       0.016
   0.03220716 -0.01332315  0.09239231       0.032
   0.06392152 -0.02664630  0.10695608       0.032
  -0.06293591  0.02664630  0.04870100       0.032
  -0.03122156  0.01332315  0.06326477       0.032
   0.06392152 -0.00000000  0.10695608       0.016
   0.09563587 -0.01332315  0.12151985       0.032
  -0.03122156  0.03996944  0.06326477       0.032
   0.00049280  0.02664630  0.07782854       0.032
   0.12735023 -0.00000000  0.13608362       0.016
   0.00049280  0.05329259  0.07782854       0.032
   0.03220716  0.03996944  0.09239231       0.032
  -0.12636463  0.00000000  0.01957346       0.016
  -0.09465027 -0.01332315  0.03413723       0.032
  -0.06293591  0.00000000  0.04870100       0.016
 
 k-points in reciprocal lattice and weights: Automatic mesh                          
   0.00000000  0.00000000  0.00000000       0.008
   0.20000000 -0.00000000 -0.00000000       0.032
   0.40000000 -0.00000000 -0.00000000       0.032
   0.20000000  0.20000000 -0.00000000       0.016
   0.40000000  0.20000000 -0.00000000       0.032
  -0.40000000  0.20000000  0.00000000       0.032
  -0.20000000  0.20000000  0.00000000       0.016
   0.40000000  0.40000000 -0.00000000       0.016
  -0.40000000  0.40000000  0.00000000       0.016
   0.00000000 -0.00000000  0.20000000       0.016
   0.20000000 -0.00000000  0.20000000       0.032
   0.40000000 -0.00000000  0.20000000       0.032
  -0.40000000  0.00000000  0.20000000       0.032
  -0.20000000  0.00000000  0.20000000       0.032
   0.20000000  0.20000000  0.20000000       0.016
   0.40000000  0.20000000  0.20000000       0.032
  -0.40000000  0.20000000  0.20000000       0.032
  -0.20000000  0.20000000  0.20000000       0.032
   0.40000000  0.40000000  0.20000000       0.016
  -0.40000000  0.40000000  0.20000000       0.032
  -0.20000000  0.40000000  0.20000000       0.032
  -0.40000000 -0.40000000  0.20000000       0.016
  -0.20000000 -0.40000000  0.20000000       0.032
  -0.20000000 -0.20000000  0.20000000       0.016
   0.00000000 -0.00000000  0.40000000       0.016
   0.20000000 -0.00000000  0.40000000       0.032
   0.40000000 -0.00000000  0.40000000       0.032
  -0.40000000  0.00000000  0.40000000       0.032
  -0.20000000  0.00000000  0.40000000       0.032
   0.20000000  0.20000000  0.40000000       0.016
   0.40000000  0.20000000  0.40000000       0.032
  -0.40000000  0.20000000  0.40000000       0.032
  -0.20000000  0.20000000  0.40000000       0.032
   0.40000000  0.40000000  0.40000000       0.016
  -0.40000000  0.40000000  0.40000000       0.032
  -0.20000000  0.40000000  0.40000000       0.032
  -0.40000000 -0.40000000  0.40000000       0.016
  -0.20000000 -0.40000000  0.40000000       0.032
  -0.20000000 -0.20000000  0.40000000       0.016
 
 position of ions in fractional coordinates (direct lattice) 
   0.83281550  0.16718451  0.25000000
   0.16718450  0.83281550  0.75000000
   0.67196703  0.32803294  0.75000000
   0.32803297  0.67196703  0.25000000
   0.81334577  0.35755141  0.59238711
   0.18665423  0.64244859  0.40761289
   0.64244859  0.18665423  0.90761289
   0.35755141  0.81334577  0.09238711
   0.81745364  0.58623571  0.92025806
   0.18254636  0.41376429  0.07974194
   0.41376429  0.18254636  0.57974194
   0.58623571  0.81745364  0.42025806
   0.71703796  0.85094993  0.91856825
   0.28296204  0.14905007  0.08143175
   0.14905007  0.28296204  0.58143175
   0.85094993  0.71703796  0.41856825
   0.65284594  0.82687774  0.73786160
   0.34715406  0.17312226  0.26213840
   0.17312226  0.34715406  0.76213840
   0.82687774  0.65284594  0.23786160
   0.74738133  0.75288229  0.90853860
   0.25261867  0.24711771  0.09146140
   0.24711771  0.25261867  0.59146140
   0.75288229  0.74738133  0.40853860
 
 position of ions in cartesian coordinates  (Angst):
   2.57058386 -4.99604893  1.26859902
   1.38706921  4.99604902  3.84584421
   1.38706908 -2.58147760  3.84584421
   2.57058384  2.58147736  1.26859902
   2.30057868 -3.42107101  3.03000811
   1.65707434  3.42107099  2.08443511
   0.47355966 -3.42107100  4.66168030
   3.48409336  3.42107099  0.45276292
   2.26066681 -1.73546017  4.71535443
   1.69698621  1.73546016  0.39908879
   0.51347154 -1.73546017  2.97633398
   3.44418147  1.73546015  2.13810924
   2.78423465  1.00510757  4.70335449
   1.17341836 -1.00510758  0.41108874
  -0.01009628  1.00510758  2.98833393
   3.96774929 -1.00510760  2.12610930
   2.93285108  1.30623631  3.77367114
   1.02480193 -1.30623633  1.34077208
  -0.15871270  1.30623633  3.91801727
   4.11636572 -1.30623635  1.19642595
   2.59380791  0.04128876  4.65301281
   1.36384510 -0.04128878  0.46143042
   0.18033045  0.04128877  3.03867561
   3.77732256 -0.04128879  2.07576762
 


--------------------------------------------------------------------------------------------------------


 k-point  1 :   0.0000 0.0000 0.0000  plane waves:    6567
 k-point  2 :   0.2000-0.0000-0.0000  plane waves:    6558
 k-point  3 :   0.4000-0.0000-0.0000  plane waves:    6584
 k-point  4 :   0.2000 0.2000-0.0000  plane waves:    6573
 k-point  5 :   0.4000 0.2000-0.0000  plane waves:    6585
 k-point  6 :  -0.4000 0.2000 0.0000  plane waves:    6572
 k-point  7 :  -0.2000 0.2000 0.0000  plane waves:    6568
 k-point  8 :   0.4000 0.4000-0.0000  plane waves:    6588
 k-point  9 :  -0.4000 0.4000 0.0000  plane waves:    6576
 k-point 10 :   0.0000-0.0000 0.2000  plane waves:    6574
 k-point 11 :   0.2000-0.0000 0.2000  plane waves:    6573
 k-point 12 :   0.4000-0.0000 0.2000  plane waves:    6578
 k-point 13 :  -0.4000 0.0000 0.2000  plane waves:    6578
 k-point 14 :  -0.2000 0.0000 0.2000  plane waves:    6563
 k-point 15 :   0.2000 0.2000 0.2000  plane waves:    6570
 k-point 16 :   0.4000 0.2000 0.2000  plane waves:    6592
 k-point 17 :  -0.4000 0.2000 0.2000  plane waves:    6562
 k-point 18 :  -0.2000 0.2000 0.2000  plane waves:    6564
 k-point 19 :   0.4000 0.4000 0.2000  plane waves:    6572
 k-point 20 :  -0.4000 0.4000 0.2000  plane waves:    6580
 k-point 21 :  -0.2000 0.4000 0.2000  plane waves:    6582
 k-point 22 :  -0.4000-0.4000 0.2000  plane waves:    6577
 k-point 23 :  -0.2000-0.4000 0.2000  plane waves:    6573
 k-point 24 :  -0.2000-0.2000 0.2000  plane waves:    6547
 k-point 25 :   0.0000-0.0000 0.4000  plane waves:    6564
 k-point 26 :   0.2000-0.0000 0.4000  plane waves:    6565
 k-point 27 :   0.4000-0.0000 0.4000  plane waves:    6566
 k-point 28 :  -0.4000 0.0000 0.4000  plane waves:    6546
 k-point 29 :  -0.2000 0.0000 0.4000  plane waves:    6558
 k-point 30 :   0.2000 0.2000 0.4000  plane waves:    6571
 k-point 31 :   0.4000 0.2000 0.4000  plane waves:    6559
 k-point 32 :  -0.4000 0.2000 0.4000  plane waves:    6567
 k-point 33 :  -0.2000 0.2000 0.4000  plane waves:    6575
 k-point 34 :   0.4000 0.4000 0.4000  plane waves:    6578
 k-point 35 :  -0.4000 0.4000 0.4000  plane waves:    6558
 k-point 36 :  -0.2000 0.4000 0.4000  plane waves:    6568
 k-point 37 :  -0.4000-0.4000 0.4000  plane waves:    6556
 k-point 38 :  -0.2000-0.4000 0.4000  plane waves:    6553
 k-point 39 :  -0.2000-0.2000 0.4000  plane waves:    6559

 maximum and minimum number of plane-waves per node :      6592     6546

 maximum number of plane-waves:      6592
 maximum index in each direction: 
   IXMAX=   15   IYMAX=   15   IZMAX=   10
   IXMIN=  -15   IYMIN=  -15   IZMIN=  -10


 serial   3D FFT for wavefunctions
 parallel 3D FFT for charge:
    minimum data exchange during FFTs selected (reduces bandwidth)


 total amount of memory used by VASP MPI-rank0   203365. kBytes
=======================================================================

   base      :      30000. kBytes
   nonl-proj :     151345. kBytes
   fftplans  :       3508. kBytes
   grid      :       9633. kBytes
   one-center:        373. kBytes
   wavefun   :       8506. kBytes
 
     INWAV:  cpu time    0.0001: real time    0.0003
 Broyden mixing: mesh for mixing (old mesh)
   NGX = 31   NGY = 31   NGZ = 21
  (NGX  =128   NGY  =128   NGZ  = 84)
  gives a total of  20181 points

 initial charge density was supplied:
 charge density of overlapping atoms calculated
 number of electron     112.0000000 magnetization 
 keeping initial charge density in first step


--------------------------------------------------------------------------------------------------------


 Maximum index for augmentation-charges         1098 (set IRDMAX)


--------------------------------------------------------------------------------------------------------


 First call to EWALD:  gamma=   0.284
 Maximum number of real-space cells 3x 3x 3
 Maximum number of reciprocal cells 3x 3x 3

    FEWALD:  cpu time    0.0031: real time    0.0031


--------------------------------------- Iteration      1(   1)  ---------------------------------------


    POTLOK:  cpu time    0.0646: real time    0.0661
    SETDIJ:  cpu time    0.2025: real time    0.2026
     EDDAV:  cpu time    7.1158: real time    7.1198
       DOS:  cpu time    0.0047: real time    0.0047
    --------------------------------------------
      LOOP:  cpu time    7.3876: real time    7.3932

 eigenvalue-minimisations  :  7488
 total energy-change (2. order) : 0.6438243E+03  (-0.6110953E+04)
 number of electron     112.0000000 magnetization 
 augmentation part      112.0000000 magnetization 

 Free energy of the ion-electron system (eV)
  ---------------------------------------------------
  alpha Z        PSCENC =       276.17324130
  Ewald energy   TEWEN  =     -4956.47951506
  -Hartree energ DENC   =     -2491.74314278
  -exchange      EXHF   =         0.00000000
  -V(xc)+E(xc)   XCENC  =       467.35953168
  PAW double counting   =      6102.83122939    -6098.06655942
  entropy T*S    EENTRO =        -0.00019607
  eigenvalues    EBANDS =      -510.26213000
  atomic energy  EATOM  =      7854.01179305
  Solvation  Ediel_sol  =         0.00000000
  ---------------------------------------------------
  free energy    TOTEN  =       643.82425209 eV

  energy without entropy =      643.82444816  energy(sigma->0) =      643.82435013


--------------------------------------------------------------------------------------------------------




--------------------------------------- Iteration      1(   2)  ---------------------------------------


     EDDAV:  cpu time    8.2525: real time    8.2576
       DOS:  cpu time    0.0010: real time    0.0010
    --------------------------------------------
      LOOP:  cpu time    8.2535: real time    8.2587

 eigenvalue-minimisations  :  9456
 total energy-change (2. order) :-0.7668515E+03  (-0.7477057E+03)
 number of electron     112.0000000 magnetization 
 augmentation part      112.0000000 magnetization 

 Free energy of the ion-electron system (eV)
  ---------------------------------------------------
  alpha Z        PSCENC =       276.17324130
  Ewald energy   TEWEN  =     -4956.47951506
  -Hartree energ DENC   =     -2491.74314278
  -exchange      EXHF   =         0.00000000
  -V(xc)+E(xc)   XCENC  =       467.35953168
  PAW double counting   =      6102.83122939    -6098.06655942
  entropy T*S    EENTRO =        -0.00000000
  eigenvalues    EBANDS =     -1277.11381030
  atomic energy  EATOM  =      7854.01179305
  Solvation  Ediel_sol  =         0.00000000
  ---------------------------------------------------
  free energy    TOTEN  =      -123.02723213 eV

  energy without entropy =     -123.02723213  energy(sigma->0) =     -123.02723213


--------------------------------------------------------------------------------------------------------




--------------------------------------- Iteration      1(   3)  ---------------------------------------


     EDDAV:  cpu time   13.3795: real time   13.3868
       DOS:  cpu time    0.0010: real time    0.0010
    --------------------------------------------
      LOOP:  cpu time   13.3805: real time   13.3878

 eigenvalue-minimisations  : 14544
 total energy-change (2. order) :-0.3061692E+02  (-0.3054820E+02)
 number of electron     112.0000000 magnetization 
 augmentation part      112.0000000 magnetization 

 Free energy of the ion-electron system (eV)
  ---------------------------------------------------
  alpha Z        PSCENC =       276.17324130
  Ewald energy   TEWEN  =     -4956.47951506
  -Hartree energ DENC   =     -2491.74314278
  -exchange      EXHF   =         0.00000000
  -V(xc)+E(xc)   XCENC  =       467.35953168
  PAW double counting   =      6102.83122939    -6098.06655942
  entropy T*S    EENTRO =        -0.00000000
  eigenvalues    EBANDS =     -1307.73073072
  atomic energy  EATOM  =      7854.01179305
  Solvation  Ediel_sol  =         0.00000000
  ---------------------------------------------------
  free energy    TOTEN  =      -153.64415256 eV

  energy without entropy =     -153.64415256  energy(sigma->0) =     -153.64415256


--------------------------------------------------------------------------------------------------------




--------------------------------------- Iteration      1(   4)  ---------------------------------------


     EDDAV:  cpu time    7.1936: real time    7.1966
       DOS:  cpu time    0.0010: real time    0.0010
    --------------------------------------------
      LOOP:  cpu time    7.1946: real time    7.1976

 eigenvalue-minimisations  :  7920
 total energy-change (2. order) :-0.8022334E-01  (-0.8021067E-01)
 number of electron     112.0000000 magnetization 
 augmentation part      112.0000000 magnetization 

 Free energy of the ion-electron system (eV)
  ---------------------------------------------------
  alpha Z        PSCENC =       276.17324130
  Ewald energy   TEWEN  =     -4956.47951506
  -Hartree energ DENC   =     -2491.74314278
  -exchange      EXHF   =         0.00000000
  -V(xc)+E(xc)   XCENC  =       467.35953168
  PAW double counting   =      6102.83122939    -6098.06655942
  entropy T*S    EENTRO =        -0.00000000
  eigenvalues    EBANDS =     -1307.81095407
  atomic energy  EATOM  =      7854.01179305
  Solvation  Ediel_sol  =         0.00000000
  ---------------------------------------------------
  free energy    TOTEN  =      -153.72437590 eV

  energy without entropy =     -153.72437590  energy(sigma->0) =     -153.72437590


--------------------------------------------------------------------------------------------------------




--------------------------------------- Iteration      1(   5)  ---------------------------------------


     EDDAV:  cpu time   10.1045: real time   10.1086
       DOS:  cpu time    0.0011: real time    0.0011
    CHARGE:  cpu time    0.3754: real time    0.3754
    MIXING:  cpu time    0.0045: real time    0.0045
    --------------------------------------------
      LOOP:  cpu time   10.4855: real time   10.4896

 eigenvalue-minimisations  : 11040
 total energy-change (2. order) :-0.1102368E-02  (-0.1102362E-02)
 number of electron     112.0000000 magnetization 
 augmentation part       13.6776685 magnetization 

 Broyden mixing:
  rms(total) = 0.62802E+01    rms(broyden)= 0.62799E+01
  rms(prec ) = 0.69021E+01
  weight for this iteration     100.00

 Free energy of the ion-electron system (eV)
  ---------------------------------------------------
  alpha Z        PSCENC =       276.17324130
  Ewald energy   TEWEN  =     -4956.47951506
  -Hartree energ DENC   =     -2491.74314278
  -exchange      EXHF   =         0.00000000
  -V(xc)+E(xc)   XCENC  =       467.35953168
  PAW double counting   =      6102.83122939    -6098.06655942
  entropy T*S    EENTRO =        -0.00000000
  eigenvalues    EBANDS =     -1307.81205643
  atomic energy  EATOM  =      7854.01179305
  Solvation  Ediel_sol  =         0.00000000
  ---------------------------------------------------
  free energy    TOTEN  =      -153.72547827 eV

  energy without entropy =     -153.72547827  energy(sigma->0) =     -153.72547827


--------------------------------------------------------------------------------------------------------




--------------------------------------- Iteration      1(   6)  ---------------------------------------


    POTLOK:  cpu time    0.0432: real time    0.0450
    SETDIJ:  cpu time    0.2020: real time    0.2021
     EDDAV:  cpu time    9.0572: real time    9.0590
       DOS:  cpu time    0.0012: real time    0.0011
    CHARGE:  cpu time    0.3761: real time    0.3761
    MIXING:  cpu time    0.0032: real time    0.0032
    --------------------------------------------
      LOOP:  cpu time    9.6829: real time    9.6866

 eigenvalue-minimisations  : 10224
 total energy-change (2. order) : 0.1643684E+02  (-0.4561931E+01)
 number of electron     112.0000001 magnetization 
 augmentation part       11.9921891 magnetization 

 Broyden mixing:
  rms(total) = 0.24962E+01    rms(broyden)= 0.24959E+01
  rms(prec ) = 0.25642E+01
  weight for this iteration     100.00

 eigenvalues of (default mixing * dielectric matrix)
  average eigenvalue GAMMA=   1.4560
  1.4560

 Free energy of the ion-electron system (eV)
  ---------------------------------------------------
  alpha Z        PSCENC =       276.17324130
  Ewald energy   TEWEN  =     -4956.47951506
  -Hartree energ DENC   =     -2654.40713699
  -exchange      EXHF   =         0.00000000
  -V(xc)+E(xc)   XCENC  =       479.05881772
  PAW double counting   =      9036.16549325    -9043.39523507
  entropy T*S    EENTRO =        -0.00000000
  eigenvalues    EBANDS =     -1128.41610086
  atomic energy  EATOM  =      7854.01179305
  Solvation  Ediel_sol  =         0.00000000
  ---------------------------------------------------
  free energy    TOTEN  =      -137.28864267 eV

  energy without entropy =     -137.28864267  energy(sigma->0) =     -137.28864267


--------------------------------------------------------------------------------------------------------




--------------------------------------- Iteration      1(   7)  ---------------------------------------


    POTLOK:  cpu time    0.0438: real time    0.0440
    SETDIJ:  cpu time    0.2021: real time    0.2022
     EDDAV:  cpu time    8.6753: real time    8.6774
       DOS:  cpu time    0.0010: real time    0.0010
    CHARGE:  cpu time    0.3718: real time    0.3718
    MIXING:  cpu time    0.0032: real time    0.0032
    --------------------------------------------
      LOOP:  cpu time    9.2973: real time    9.2998

 eigenvalue-minimisations  :  9696
 total energy-change (2. order) :-0.5858655E-01  (-0.2820056E+00)
 number of electron     112.0000001 magnetization 
 augmentation part       11.8978363 magnetization 

 Broyden mixing:
  rms(total) = 0.14364E+01    rms(broyden)= 0.14363E+01
  rms(prec ) = 0.14695E+01
  weight for this iteration     100.00

 eigenvalues of (default mixing * dielectric matrix)
  average eigenvalue GAMMA=   1.6686
  0.9172  2.4200

 Free energy of the ion-electron system (eV)
  ---------------------------------------------------
  alpha Z        PSCENC =       276.17324130
  Ewald energy   TEWEN  =     -4956.47951506
  -Hartree energ DENC   =     -2673.69427892
  -exchange      EXHF   =         0.00000000
  -V(xc)+E(xc)   XCENC  =       480.42779198
  PAW double counting   =     11786.98703463   -11799.83102897
  entropy T*S    EENTRO =        -0.00000000
  eigenvalues    EBANDS =     -1104.94226722
  atomic energy  EATOM  =      7854.01179305
  Solvation  Ediel_sol  =         0.00000000
  ---------------------------------------------------
  free energy    TOTEN  =      -137.34722922 eV

  energy without entropy =     -137.34722922  energy(sigma->0) =     -137.34722922


--------------------------------------------------------------------------------------------------------




--------------------------------------- Iteration      1(   8)  ---------------------------------------


    POTLOK:  cpu time    0.0435: real time    0.0441
    SETDIJ:  cpu time    0.2021: real time    0.2022
     EDDAV:  cpu time    9.2363: real time    9.2383
       DOS:  cpu time    0.0010: real time    0.0010
    CHARGE:  cpu time    0.3808: real time    0.3808
    MIXING:  cpu time    0.0033: real time    0.0033
    --------------------------------------------
      LOOP:  cpu time    9.8668: real time    9.8697

 eigenvalue-minimisations  : 10320
 total energy-change (2. order) : 0.1428972E-01  (-0.2416967E-01)
 number of electron     112.0000001 magnetization 
 augmentation part       11.9531696 magnetization 

 Broyden mixing:
  rms(total) = 0.13022E+00    rms(broyden)= 0.13022E+00
  rms(prec ) = 0.14647E+00
  weight for this iteration     100.00

 eigenvalues of (default mixing * dielectric matrix)
  average eigenvalue GAMMA=   1.5044
  2.3894  1.0619  1.0619

 Free energy of the ion-electron system (eV)
  ---------------------------------------------------
  alpha Z        PSCENC =       276.17324130
  Ewald energy   TEWEN  =     -4956.47951506
  -Hartree energ DENC   =     -2684.77555524
  -exchange      EXHF   =         0.00000000
  -V(xc)+E(xc)   XCENC  =       481.30435486
  PAW double counting   =     14565.16075403   -14582.76707068
  entropy T*S    EENTRO =        -0.00000000
  eigenvalues    EBANDS =     -1089.96094176
  atomic energy  EATOM  =      7854.01179305
  Solvation  Ediel_sol  =         0.00000000
  ---------------------------------------------------
  free energy    TOTEN  =      -137.33293950 eV

  energy without entropy =     -137.33293950  energy(sigma->0) =     -137.33293950


--------------------------------------------------------------------------------------------------------




--------------------------------------- Iteration      1(   9)  ---------------------------------------


    POTLOK:  cpu time    0.0429: real time    0.0435
    SETDIJ:  cpu time    0.2012: real time    0.2013
     EDDAV:  cpu time    8.1823: real time    8.1841
       DOS:  cpu time    0.0009: real time    0.0009
    CHARGE:  cpu time    0.3660: real time    0.3661
    MIXING:  cpu time    0.0028: real time    0.0028
    --------------------------------------------
      LOOP:  cpu time    8.7962: real time    8.7988

 eigenvalue-minimisations  :  9072
 total energy-change (2. order) : 0.8402637E-03  (-0.3722975E-02)
 number of electron     112.0000001 magnetization 
 augmentation part       11.9244279 magnetization 

 Broyden mixing:
  rms(total) = 0.93176E-01    rms(broyden)= 0.93172E-01
  rms(prec ) = 0.97984E-01
  weight for this iteration     100.00

 eigenvalues of (default mixing * dielectric matrix)
  average eigenvalue GAMMA=   1.4509
  2.4440  0.8457  1.0078  1.5063

 Free energy of the ion-electron system (eV)
  ---------------------------------------------------
  alpha Z        PSCENC =       276.17324130
  Ewald energy   TEWEN  =     -4956.47951506
  -Hartree energ DENC   =     -2688.31715547
  -exchange      EXHF   =         0.00000000
  -V(xc)+E(xc)   XCENC  =       481.52680091
  PAW double counting   =     14386.32126036   -14403.90183239
  entropy T*S    EENTRO =        -0.00000000
  eigenvalues    EBANDS =     -1086.66669195
  atomic energy  EATOM  =      7854.01179305
  Solvation  Ediel_sol  =         0.00000000
  ---------------------------------------------------
  free energy    TOTEN  =      -137.33209924 eV

  energy without entropy =     -137.33209924  energy(sigma->0) =     -137.33209924


--------------------------------------------------------------------------------------------------------




--------------------------------------- Iteration      1(  10)  ---------------------------------------


    POTLOK:  cpu time    0.0445: real time    0.0447
    SETDIJ:  cpu time    0.2015: real time    0.2015
     EDDAV:  cpu time    8.7373: real time    8.7397
       DOS:  cpu time    0.0012: real time    0.0012
    CHARGE:  cpu time    0.3659: real time    0.3659
    MIXING:  cpu time    0.0028: real time    0.0028
    --------------------------------------------
      LOOP:  cpu time    9.3532: real time    9.3559

 eigenvalue-minimisations  :  9792
 total energy-change (2. order) :-0.3726254E-02  (-0.4809654E-03)
 number of electron     112.0000001 magnetization 
 augmentation part       11.9242022 magnetization 

 Broyden mixing:
  rms(total) = 0.43269E-01    rms(broyden)= 0.43269E-01
  rms(prec ) = 0.46152E-01
  weight for this iteration     100.00

 eigenvalues of (default mixing * dielectric matrix)
  average eigenvalue GAMMA=   1.4816
  2.5677  1.9484  0.9461  0.9461  0.9998

 Free energy of the ion-electron system (eV)
  ---------------------------------------------------
  alpha Z        PSCENC =       276.17324130
  Ewald energy   TEWEN  =     -4956.47951506
  -Hartree energ DENC   =     -2689.70090149
  -exchange      EXHF   =         0.00000000
  -V(xc)+E(xc)   XCENC  =       481.60723609
  PAW double counting   =     14394.77066927   -14412.46883314
  entropy T*S    EENTRO =        -0.00000000
  eigenvalues    EBANDS =     -1085.24951551
  atomic energy  EATOM  =      7854.01179305
  Solvation  Ediel_sol  =         0.00000000
  ---------------------------------------------------
  free energy    TOTEN  =      -137.33582549 eV

  energy without entropy =     -137.33582549  energy(sigma->0) =     -137.33582549


--------------------------------------------------------------------------------------------------------




--------------------------------------- Iteration      1(  11)  ---------------------------------------


    POTLOK:  cpu time    0.0434: real time    0.0455
    SETDIJ:  cpu time    0.2011: real time    0.2012
     EDDAV:  cpu time    7.7608: real time    7.7631
       DOS:  cpu time    0.0009: real time    0.0009
    CHARGE:  cpu time    0.3865: real time    0.3875
    MIXING:  cpu time    0.0028: real time    0.0028
    --------------------------------------------
      LOOP:  cpu time    8.3956: real time    8.4009

 eigenvalue-minimisations  :  8736
 total energy-change (2. order) :-0.1266007E-02  (-0.1325442E-03)
 number of electron     112.0000001 magnetization 
 augmentation part       11.9277907 magnetization 

 Broyden mixing:
  rms(total) = 0.56193E-02    rms(broyden)= 0.56179E-02
  rms(prec ) = 0.77354E-02
  weight for this iteration     100.00

 eigenvalues of (default mixing * dielectric matrix)
  average eigenvalue GAMMA=   1.5457
  2.7438  2.2805  1.2813  0.9771  0.9958  0.9958

 Free energy of the ion-electron system (eV)
  ---------------------------------------------------
  alpha Z        PSCENC =       276.17324130
  Ewald energy   TEWEN  =     -4956.47951506
  -Hartree energ DENC   =     -2690.21115030
  -exchange      EXHF   =         0.00000000
  -V(xc)+E(xc)   XCENC  =       481.62973192
  PAW double counting   =     14393.92134994   -14411.65701102
  entropy T*S    EENTRO =        -0.00000000
  eigenvalues    EBANDS =     -1084.72553133
  atomic energy  EATOM  =      7854.01179305
  Solvation  Ediel_sol  =         0.00000000
  ---------------------------------------------------
  free energy    TOTEN  =      -137.33709150 eV

  energy without entropy =     -137.33709150  energy(sigma->0) =     -137.33709150


--------------------------------------------------------------------------------------------------------




--------------------------------------- Iteration      1(  12)  ---------------------------------------


    POTLOK:  cpu time    0.0529: real time    0.0532
    SETDIJ:  cpu time    0.2005: real time    0.2005
     EDDAV:  cpu time    9.2813: real time    9.2832
       DOS:  cpu time    0.0009: real time    0.0009
    CHARGE:  cpu time    0.3713: real time    0.3714
    MIXING:  cpu time    0.0031: real time    0.0031
    --------------------------------------------
      LOOP:  cpu time    9.9100: real time    9.9123

 eigenvalue-minimisations  : 10320
 total energy-change (2. order) :-0.1858875E-03  (-0.1977776E-04)
 number of electron     112.0000001 magnetization 
 augmentation part       11.9279070 magnetization 

 Broyden mixing:
  rms(total) = 0.29493E-02    rms(broyden)= 0.29491E-02
  rms(prec ) = 0.35890E-02
  weight for this iteration     100.00

 eigenvalues of (default mixing * dielectric matrix)
  average eigenvalue GAMMA=   1.5896
  2.9333  2.1988  2.1988  0.9351  0.9351  0.9633  0.9633

 Free energy of the ion-electron system (eV)
  ---------------------------------------------------
  alpha Z        PSCENC =       276.17324130
  Ewald energy   TEWEN  =     -4956.47951506
  -Hartree energ DENC   =     -2690.44500627
  -exchange      EXHF   =         0.00000000
  -V(xc)+E(xc)   XCENC  =       481.63959383
  PAW double counting   =     14383.98668982   -14401.69833373
  entropy T*S    EENTRO =        -0.00000000
  eigenvalues    EBANDS =     -1084.52574032
  atomic energy  EATOM  =      7854.01179305
  Solvation  Ediel_sol  =         0.00000000
  ---------------------------------------------------
  free energy    TOTEN  =      -137.33727738 eV

  energy without entropy =     -137.33727738  energy(sigma->0) =     -137.33727738


--------------------------------------------------------------------------------------------------------




--------------------------------------- Iteration      1(  13)  ---------------------------------------


    POTLOK:  cpu time    0.0427: real time    0.0430
    SETDIJ:  cpu time    0.1988: real time    0.1989
     EDDAV:  cpu time    7.9815: real time    7.9827
       DOS:  cpu time    0.0009: real time    0.0009
    CHARGE:  cpu time    0.3737: real time    0.3738
    MIXING:  cpu time    0.0037: real time    0.0037
    --------------------------------------------
      LOOP:  cpu time    8.6012: real time    8.6029

 eigenvalue-minimisations  :  8592
 total energy-change (2. order) :-0.2465928E-04  (-0.3734258E-05)
 number of electron     112.0000001 magnetization 
 augmentation part       11.9279375 magnetization 

 Broyden mixing:
  rms(total) = 0.14085E-02    rms(broyden)= 0.14085E-02
  rms(prec ) = 0.16565E-02
  weight for this iteration     100.00

 eigenvalues of (default mixing * dielectric matrix)
  average eigenvalue GAMMA=   1.5895
  2.9768  2.4552  2.0833  0.9696  0.9696  1.0101  1.0101  1.2415

 Free energy of the ion-electron system (eV)
  ---------------------------------------------------
  alpha Z        PSCENC =       276.17324130
  Ewald energy   TEWEN  =     -4956.47951506
  -Hartree energ DENC   =     -2690.53508057
  -exchange      EXHF   =         0.00000000
  -V(xc)+E(xc)   XCENC  =       481.64342478
  PAW double counting   =     14389.20072955   -14406.90391840
  entropy T*S    EENTRO =        -0.00000000
  eigenvalues    EBANDS =     -1084.44797670
  atomic energy  EATOM  =      7854.01179305
  Solvation  Ediel_sol  =         0.00000000
  ---------------------------------------------------
  free energy    TOTEN  =      -137.33730204 eV

  energy without entropy =     -137.33730204  energy(sigma->0) =     -137.33730204


--------------------------------------------------------------------------------------------------------




--------------------------------------- Iteration      1(  14)  ---------------------------------------


    POTLOK:  cpu time    0.0433: real time    0.0436
    SETDIJ:  cpu time    0.1985: real time    0.1985
     EDDAV:  cpu time    9.3464: real time    9.3475
       DOS:  cpu time    0.0009: real time    0.0009
    CHARGE:  cpu time    0.3722: real time    0.3722
    MIXING:  cpu time    0.0038: real time    0.0038
    --------------------------------------------
      LOOP:  cpu time    9.9650: real time    9.9664

 eigenvalue-minimisations  : 10224
 total energy-change (2. order) :-0.3244200E-05  (-0.9980516E-06)
 number of electron     112.0000001 magnetization 
 augmentation part       11.9280980 magnetization 

 Broyden mixing:
  rms(total) = 0.71126E-03    rms(broyden)= 0.71117E-03
  rms(prec ) = 0.84667E-03
  weight for this iteration     100.00

 eigenvalues of (default mixing * dielectric matrix)
  average eigenvalue GAMMA=   1.5419
  3.1095  2.4674  2.0575  1.4850  0.9251  0.9251  1.0152  1.0152  0.8767

 Free energy of the ion-electron system (eV)
  ---------------------------------------------------
  alpha Z        PSCENC =       276.17324130
  Ewald energy   TEWEN  =     -4956.47951506
  -Hartree energ DENC   =     -2690.57175372
  -exchange      EXHF   =         0.00000000
  -V(xc)+E(xc)   XCENC  =       481.64466691
  PAW double counting   =     14388.66055366   -14406.36033400
  entropy T*S    EENTRO =        -0.00000000
  eigenvalues    EBANDS =     -1084.41595742
  atomic energy  EATOM  =      7854.01179305
  Solvation  Ediel_sol  =         0.00000000
  ---------------------------------------------------
  free energy    TOTEN  =      -137.33730529 eV

  energy without entropy =     -137.33730529  energy(sigma->0) =     -137.33730529


--------------------------------------------------------------------------------------------------------




--------------------------------------- Iteration      1(  15)  ---------------------------------------


    POTLOK:  cpu time    0.0450: real time    0.0457
    SETDIJ:  cpu time    0.2017: real time    0.2017
     EDDAV:  cpu time    7.6622: real time    7.6630
       DOS:  cpu time    0.0009: real time    0.0010
    CHARGE:  cpu time    0.3721: real time    0.3722
    MIXING:  cpu time    0.0041: real time    0.0041
    --------------------------------------------
      LOOP:  cpu time    8.2860: real time    8.2876

 eigenvalue-minimisations  :  8640
 total energy-change (2. order) :-0.8359893E-07  (-0.1344292E-06)
 number of electron     112.0000001 magnetization 
 augmentation part       11.9280393 magnetization 

 Broyden mixing:
  rms(total) = 0.47360E-03    rms(broyden)= 0.47358E-03
  rms(prec ) = 0.50195E-03
  weight for this iteration     100.00

 eigenvalues of (default mixing * dielectric matrix)
  average eigenvalue GAMMA=   1.5943
  3.1707  2.4134  2.4134  1.9101  0.9907  0.9907  0.9285  0.9285  1.0986  1.0986

 Free energy of the ion-electron system (eV)
  ---------------------------------------------------
  alpha Z        PSCENC =       276.17324130
  Ewald energy   TEWEN  =     -4956.47951506
  -Hartree energ DENC   =     -2690.58429443
  -exchange      EXHF   =         0.00000000
  -V(xc)+E(xc)   XCENC  =       481.64532875
  PAW double counting   =     14388.82974032   -14406.53128596
  entropy T*S    EENTRO =        -0.00000000
  eigenvalues    EBANDS =     -1084.40231335
  atomic energy  EATOM  =      7854.01179305
  Solvation  Ediel_sol  =         0.00000000
  ---------------------------------------------------
  free energy    TOTEN  =      -137.33730537 eV

  energy without entropy =     -137.33730537  energy(sigma->0) =     -137.33730537


--------------------------------------------------------------------------------------------------------




--------------------------------------- Iteration      1(  16)  ---------------------------------------


    POTLOK:  cpu time    0.0430: real time    0.0439
    SETDIJ:  cpu time    0.2015: real time    0.2015
     EDDAV:  cpu time    9.0862: real time    9.0914
       DOS:  cpu time    0.0010: real time    0.0010
    CHARGE:  cpu time    0.3620: real time    0.3622
    MIXING:  cpu time    0.0040: real time    0.0040
    --------------------------------------------
      LOOP:  cpu time    9.6976: real time    9.7040

 eigenvalue-minimisations  :  9984
 total energy-change (2. order) :-0.1416429E-06  (-0.2640508E-07)
 number of electron     112.0000001 magnetization 
 augmentation part       11.9280683 magnetization 

 Broyden mixing:
  rms(total) = 0.18342E-03    rms(broyden)= 0.18341E-03
  rms(prec ) = 0.19730E-03
  weight for this iteration     100.00

 eigenvalues of (default mixing * dielectric matrix)
  average eigenvalue GAMMA=   1.6143
  3.1571  2.8008  2.2711  2.2711  1.2439  1.0054  1.0054  0.9453  0.9453  1.0562
  1.0562

 Free energy of the ion-electron system (eV)
  ---------------------------------------------------
  alpha Z        PSCENC =       276.17324130
  Ewald energy   TEWEN  =     -4956.47951506
  -Hartree energ DENC   =     -2690.57869247
  -exchange      EXHF   =         0.00000000
  -V(xc)+E(xc)   XCENC  =       481.64488545
  PAW double counting   =     14388.91185496   -14406.61465606
  entropy T*S    EENTRO =        -0.00000000
  eigenvalues    EBANDS =     -1084.40621668
  atomic energy  EATOM  =      7854.01179305
  Solvation  Ediel_sol  =         0.00000000
  ---------------------------------------------------
  free energy    TOTEN  =      -137.33730551 eV

  energy without entropy =     -137.33730551  energy(sigma->0) =     -137.33730551


--------------------------------------------------------------------------------------------------------




--------------------------------------- Iteration      1(  17)  ---------------------------------------


[...]
    HAMIL1:  cpu time    1.2662: real time    1.2663
    LRDIAG:  cpu time    0.2606: real time    0.2607
    LRDIIS:  cpu time    5.3180: real time    5.3185
    LRDIAG:  cpu time    0.1974: real time    0.1974
    MIXING:  cpu time    0.0046: real time    0.0046
    --------------------------------------------
      LOOP:  cpu time    8.2540: real time    8.2552

 Broyden mixing:
  rms(total) = 0.57487E-05    rms(broyden)= 0.57467E-05
  rms(prec ) = 0.78514E-05
  weight for this iteration     100.00

 eigenvalues of (default mixing * dielectric matrix)
  average eigenvalue GAMMA=   1.7037
  3.2671  2.8433  2.2115  2.2115  1.5672  1.3618  0.9719  0.8995  0.8995  0.8040

 Free energy of the ion-electron system (eV)
  ---------------------------------------------------
  -Hartree energ DENC   =        -0.16268677
  -V(xc)+E(xc)   XCENC  =         0.00681102
  PAW double counting   =         0.37866592       -0.38059521
  entropy T*S    EENTRO =         0.00000000
  eigenvalues    EBANDS =        -0.94615596
  ---------------------------------------------------
  free energy    TOTEN  =        -1.10396100 eV

  energy without entropy =       -1.10396100


----------------------------------------- Iteration    3(  13)  ---------------------------------------


   POT+DIJ:  cpu time    0.4918: real time    0.4918
    HAMIL1:  cpu time    1.3064: real time    1.3066
    LRDIAG:  cpu time    0.2017: real time    0.2017
    LRDIIS:  cpu time    5.4653: real time    5.4659
    LRDIAG:  cpu time    0.1954: real time    0.1954
    MIXING:  cpu time    0.0036: real time    0.0036
    --------------------------------------------
      LOOP:  cpu time    8.3367: real time    8.3378

 Broyden mixing:
  rms(total) = 0.30843E-05    rms(broyden)= 0.30839E-05
  rms(prec ) = 0.38754E-05
  weight for this iteration     100.00

 eigenvalues of (default mixing * dielectric matrix)
  average eigenvalue GAMMA=   1.6577
  3.3057  2.8145  2.2779  2.2779  1.7516  1.4243  0.9711  0.9053  0.9053  0.8335
  0.7682

 Free energy of the ion-electron system (eV)
  ---------------------------------------------------
  -Hartree energ DENC   =        -0.16268079
  -V(xc)+E(xc)   XCENC  =         0.00681073
  PAW double counting   =         0.37867168       -0.38060099
  entropy T*S    EENTRO =         0.00000000
  eigenvalues    EBANDS =        -0.94615741
  ---------------------------------------------------
  free energy    TOTEN  =        -1.10395679 eV

  energy without entropy =       -1.10395679


----------------------------------------- Iteration    3(  14)  ---------------------------------------


   POT+DIJ:  cpu time    0.4873: real time    0.4874
    HAMIL1:  cpu time    1.2586: real time    1.2587
    LRDIAG:  cpu time    0.2006: real time    0.2009
    LRDIIS:  cpu time    5.1884: real time    5.1891
    LRDIAG:  cpu time    0.1918: real time    0.1918
    MIXING:  cpu time    0.0037: real time    0.0037
    --------------------------------------------
      LOOP:  cpu time    8.0268: real time    8.0283

 Broyden mixing:
  rms(total) = 0.14304E-05    rms(broyden)= 0.14302E-05
  rms(prec ) = 0.16895E-05
  weight for this iteration     100.00

 eigenvalues of (default mixing * dielectric matrix)
  average eigenvalue GAMMA=   1.7541
  3.8979  2.9111  2.6052  2.3742  1.8866  1.4998  1.3453  0.9991  0.9369  0.9004
  0.9004  0.7927

 Free energy of the ion-electron system (eV)
  ---------------------------------------------------
  -Hartree energ DENC   =        -0.16268172
  -V(xc)+E(xc)   XCENC  =         0.00681075
  PAW double counting   =         0.37867261       -0.38060190
  entropy T*S    EENTRO =         0.00000000
  eigenvalues    EBANDS =        -0.94615682
  ---------------------------------------------------
  free energy    TOTEN  =        -1.10395709 eV

  energy without entropy =       -1.10395709


----------------------------------------- Iteration    3(  15)  ---------------------------------------


   POT+DIJ:  cpu time    0.4862: real time    0.4863
    HAMIL1:  cpu time    1.2584: real time    1.2585
    LRDIAG:  cpu time    0.2429: real time    0.2429
    LRDIIS:  cpu time    5.2120: real time    5.2138
    LRDIAG:  cpu time    0.1984: real time    0.1984
    MIXING:  cpu time    0.0038: real time    0.0038
    --------------------------------------------
      LOOP:  cpu time    8.0930: real time    8.0952

 Broyden mixing:
  rms(total) = 0.57913E-06    rms(broyden)= 0.57907E-06
  rms(prec ) = 0.80449E-06
  weight for this iteration     100.00

 eigenvalues of (default mixing * dielectric matrix)
  average eigenvalue GAMMA=   1.6731
  3.2935  2.9295  2.6029  2.2295  2.1430  1.6975  1.4277  0.9725  0.9326  0.9326
  0.9012  0.9012  0.7858

 Free energy of the ion-electron system (eV)
  ---------------------------------------------------
  -Hartree energ DENC   =        -0.16268174
  -V(xc)+E(xc)   XCENC  =         0.00681074
  PAW double counting   =         0.37867161       -0.38060091
  entropy T*S    EENTRO =         0.00000000
  eigenvalues    EBANDS =        -0.94615653
  ---------------------------------------------------
  free energy    TOTEN  =        -1.10395683 eV

  energy without entropy =       -1.10395683


------------------------ aborting loop because EDIFF is reached ----------------------------------------


 change of polarisation eV/A/(eV/A) component  3 :    -0.031    -0.005     2.020
 dielectric tensor                  component  3 :    -0.023    -0.004     2.499


--------------------------------------------------------------------------------------------------------


    FORLOC:  cpu time    0.0132: real time    0.0132
    FORNL :  cpu time    1.0223: real time    1.0224
    STRESS:  cpu time    5.1567: real time    5.1572
    FORCOR:  cpu time    0.0417: real time    0.0417
    OFIELD:  cpu time    0.0001: real time    0.0001

 ---------------------------------------------------------------------------------------------

         DFTD3 V3.0 Rev 1        
 Edisp (eV)   -2.44972

 E6    (eV) :    -1.6665
 E8    (eV) :    -0.7832
 % E8        : 31.97
    FORVDW:  cpu time    0.2149: real time    0.2175
    FORLOC:  cpu time    0.0151: real time    0.0151
    FORNL :  cpu time    1.0229: real time    1.0230
    STRESS:  cpu time    5.1619: real time    5.1626
    FORCOR:  cpu time    0.0424: real time    0.0424
    OFIELD:  cpu time    0.0001: real time    0.0001

 ---------------------------------------------------------------------------------------------

         DFTD3 V3.0 Rev 1        
 Edisp (eV)   -2.44972

 E6    (eV) :    -1.6665
 E8    (eV) :    -0.7832
 % E8        : 31.97
    FORVDW:  cpu time    0.2167: real time    0.2185
    FORNLD:  cpu time    3.0863: real time    3.0873

 PIEZOELECTRIC TENSOR FIELD DIRECTION 3  (e Angst)
 -----------------------------------------------------------------------------
     0.00014 -0.00000 -0.00018           ( -0.00001  0.00000  0.00002)
    -0.00000 -0.00133  0.00000           (  0.00000 -0.00000 -0.00000)
    -0.00019  0.00000  0.00023           (  0.00002 -0.00000 -0.00003)

 PIEZOELECTRIC TENSOR FIELD DIRECTION 3  (C/m^2)
 -----------------------------------------------------------------------------
     0.00001 -0.00000 -0.00001
    -0.00000 -0.00009  0.00000
    -0.00001  0.00000  0.00002


      POSITION         DIRECTION 3           BORN EFFECTIVE CHARGE    (rigid.aug.   ionic)
 -----------------------------------------------------------------------------------------
      2.57058     -4.99605      1.26860     0.03689 -0.00005  2.48626 ( -2.68387 10.00000)
      1.38707      4.99605      3.84584     0.03689  0.00005  2.48626 ( -2.68387 10.00000)
      1.38707     -2.58148      3.84584     0.04658 -0.00001  3.30045 (  0.71967  6.00000)
      2.57058      2.58148      1.26860     0.04658  0.00001  3.30045 (  0.71967  6.00000)
      2.30058     -3.42107      3.03001     0.39924 -0.60029 -1.47669 ( -0.64748  6.00000)
      1.65707      3.42107      2.08444     0.39924 -0.60026 -1.47656 ( -0.64748  6.00000)
      0.47356     -3.42107      4.66168     0.39924  0.60026 -1.47656 ( -0.64748  6.00000)
      3.48409      3.42107      0.45276     0.39924  0.60029 -1.47669 ( -0.64748  6.00000)
      2.26067     -1.73546      4.71535    -0.28288 -0.50846 -1.51683 ( -0.64137  6.00000)
      1.69699      1.73546      0.39909    -0.28292 -0.50861 -1.51684 ( -0.64137  6.00000)
      0.51347     -1.73546      2.97633    -0.28292  0.50861 -1.51684 ( -0.64137  6.00000)
      3.44418      1.73546      2.13811    -0.28288  0.50846 -1.51683 ( -0.64137  6.00000)
      2.78423      1.00511      4.70335    -0.01057 -0.02869 -1.19070 ( -0.67388  6.00000)
      1.17342     -1.00511      0.41109    -0.01044 -0.02868 -1.19084 ( -0.67388  6.00000)
     -0.01010      1.00511      2.98833    -0.01044  0.02868 -1.19084 ( -0.67388  6.00000)
      3.96775     -1.00511      2.12611    -0.01057  0.02869 -1.19070 ( -0.67388  6.00000)
      2.93285      1.30624      3.77367    -0.17028 -0.30415  1.02320 ( -0.01846  1.00000)
      1.02480     -1.30624      1.34077    -0.17029 -0.30418  1.02326 ( -0.01846  1.00000)
     -0.15871      1.30624      3.91802    -0.17029  0.30418  1.02326 ( -0.01846  1.00000)
      4.11637     -1.30624      1.19643    -0.17028  0.30415  1.02320 ( -0.01846  1.00000)
      2.59381      0.04129      4.65301     0.02274  0.05155  0.26622 ( -0.01872  1.00000)
      1.36385     -0.04129      0.46143     0.02273  0.05156  0.26622 ( -0.01872  1.00000)
      0.18033      0.04129      3.03868     0.02273 -0.05156  0.26622 ( -0.01872  1.00000)
      3.77732     -0.04129      2.07577     0.02274 -0.05155  0.26622 ( -0.01872  1.00000)
 -----------------------------------------------------------------------------------------
    total drift (improves with k-points):   0.00007 -0.00000 -0.00572




--------------------------------------------------------------------------------------------------------


  Warning from LATTYP: Got some problem with cell dimensions!
  Tried to take original basis but could not verify dimensions!
  LATTYP: Found a base centered monoclinic cell.
 ALAT       =     6.3248090984
 B/A-ratio  =     2.3734261303
 C/A-ratio  =     1.8129076419
 COS(beta)  =    -0.3470889405
  
  Lattice vectors:
  
 A1 = (   3.1623411915,   7.5057335768,  -0.0200235767)
 A2 = (   3.1623411211,  -7.5057336064,  -0.0200235767)
 A3 = ( -10.2823353268,   0.0000000481,  -5.0743960706)


Analysis of symmetry for initial positions (statically):
=====================================================================
 Subroutine PRICEL returns:
 Original cell was already a primitive cell.
 

 Routine SETGRP: Setting up the symmetry group for a 
 base centered monoclinic supercell.


 Subroutine GETGRP returns: Found  4 space group operations
 (whereof  2 operations were pure point group operations)
 out of a pool of  4 trial point group operations.


The static configuration has the point symmetry S_2 .
 The point group associated with its full space group is C_2h.


Analysis of symmetry for dynamics (positions and initial velocities):
=====================================================================
 Subroutine PRICEL returns:
 Original cell was already a primitive cell.
 

 Routine SETGRP: Setting up the symmetry group for a 
 base centered monoclinic supercell.


 Subroutine GETGRP returns: Found  4 space group operations
 (whereof  2 operations were pure point group operations)
 out of a pool of  4 trial point group operations.


The dynamic configuration has the point symmetry S_2 .
 The point group associated with its full space group is C_2h.


 Subroutine INISYM returns: Found  4 space group operations
 (whereof  2 operations are pure point group operations),
 and found     1 'primitive' translations



 MACROSCOPIC STATIC DIELECTRIC TENSOR (including local field effects in DFT)
 ------------------------------------------------------
           2.490863     0.000000    -0.023154
           0.000000     2.491393     0.000000
          -0.023154     0.000000     2.498528
 ------------------------------------------------------



--------------------------------------------------------------------------------------------------------


  Warning from LATTYP: Got some problem with cell dimensions!
  Tried to take original basis but could not verify dimensions!
  LATTYP: Found a base centered monoclinic cell.
 ALAT       =     6.3248090984
 B/A-ratio  =     2.3734261303
 C/A-ratio  =     1.8129076419
 COS(beta)  =    -0.3470889405
  
  Lattice vectors:
  
 A1 = (   3.1623411915,   7.5057335768,  -0.0200235767)
 A2 = (   3.1623411211,  -7.5057336064,  -0.0200235767)
 A3 = ( -10.2823353268,   0.0000000481,  -5.0743960706)


Analysis of symmetry for initial positions (statically):
=====================================================================
 Subroutine PRICEL returns:
 Original cell was already a primitive cell.
 

 Routine SETGRP: Setting up the symmetry group for a 
 base centered monoclinic supercell.


 Subroutine GETGRP returns: Found  4 space group operations
 (whereof  2 operations were pure point group operations)
 out of a pool of  4 trial point group operations.


The static configuration has the point symmetry S_2 .
 The point group associated with its full space group is C_2h.


Analysis of symmetry for dynamics (positions and initial velocities):
=====================================================================
 Subroutine PRICEL returns:
 Original cell was already a primitive cell.
 

 Routine SETGRP: Setting up the symmetry group for a 
 base centered monoclinic supercell.


 Subroutine GETGRP returns: Found  4 space group operations
 (whereof  2 operations were pure point group operations)
 out of a pool of  4 trial point group operations.


The dynamic configuration has the point symmetry S_2 .
 The point group associated with its full space group is C_2h.


 Subroutine INISYM returns: Found  4 space group operations
 (whereof  2 operations are pure point group operations),
 and found     1 'primitive' translations



--------------------------------------------------------------------------------------------------------




 MACROSCOPIC STATIC DIELECTRIC TENSOR (including local field effects in DFT)
 ------------------------------------------------------
           2.490863     0.000000    -0.023154
           0.000000     2.491393     0.000000
          -0.023154     0.000000     2.498528
 ------------------------------------------------------


 PIEZOELECTRIC TENSOR  for field in x, y, z        (e  Angst)
          XX          YY          ZZ          XY          YZ          ZX
  --------------------------------------------------------------------------------
  x     0.00041    -0.00042     0.00069    -0.00000     0.00000    -0.00027
  y    -0.00013    -0.00040     0.00126    -0.00000     0.00000    -0.00003
  z     0.00014    -0.00133     0.00023    -0.00000     0.00000    -0.00018

 PIEZOELECTRIC TENSOR  for field in x, y, z        (C/m^2)
          XX          YY          ZZ          XY          YZ          ZX
  --------------------------------------------------------------------------------
  x     0.00000     0.00000     0.00000     0.00000     0.00000     0.00000
  y     0.00000     0.00000     0.00000     0.00000     0.00000     0.00000
  z     0.00000     0.00000     0.00000     0.00000     0.00000     0.00000
 
 BORN EFFECTIVE CHARGES (in e, cummulative output)
 -------------------------------------------------
 ion    1
    1     2.75653     0.00003    -0.09991
    2    -0.00000     2.26386     0.00000
    3     0.03689    -0.00005     2.48650
 ion    2
    1     2.75653    -0.00003    -0.09991
    2    -0.00000     2.26390     0.00000
    3     0.03689     0.00005     2.48650
 ion    3
    1     3.68497     0.00003     0.01822
    2     0.00000     3.25169    -0.00000
    3     0.04657    -0.00001     3.30069
 ion    4
    1     3.68497    -0.00003     0.01822
    2     0.00000     3.25173    -0.00000
    3     0.04657     0.00001     3.30069
 ion    5
    1    -1.63608     0.40244     0.39806
    2     0.43452    -1.41689    -0.58888
    3     0.39924    -0.60029    -1.47645
 ion    6
    1    -1.63605     0.40238     0.39801
    2     0.43448    -1.41690    -0.58876
    3     0.39924    -0.60026    -1.47633
 ion    7
    1    -1.63605    -0.40238     0.39801
    2    -0.43452    -1.41689     0.58888
    3     0.39924     0.60026    -1.47633
 ion    8
    1    -1.63608    -0.40244     0.39806
    2    -0.43448    -1.41690     0.58876
    3     0.39924     0.60029    -1.47645
 ion    9
    1    -1.48183    -0.39716    -0.26755
    2    -0.37609    -1.55546    -0.51181
    3    -0.28288    -0.50846    -1.51659
 ion   10
    1    -1.48187    -0.39716    -0.26758
    2    -0.37602    -1.55554    -0.51184
    3    -0.28292    -0.50861    -1.51660
 ion   11
    1    -1.48187     0.39716    -0.26758
    2     0.37609    -1.55546     0.51181
    3    -0.28292     0.50861    -1.51660
 ion   12
    1    -1.48183     0.39716    -0.26755
    2     0.37602    -1.55554     0.51184
    3    -0.28288     0.50846    -1.51659
 ion   13
    1    -0.90320    -0.14300    -0.01812
    2    -0.14201    -1.25403     0.03867
    3    -0.01057    -0.02869    -1.19047
 ion   14
    1    -0.90325    -0.14297    -0.01803
    2    -0.14201    -1.25407     0.03873
    3    -0.01044    -0.02868    -1.19060
 ion   15
    1    -0.90325     0.14297    -0.01803
    2     0.14201    -1.25403    -0.03867
    3    -0.01044     0.02868    -1.19060
 ion   16
    1    -0.90320     0.14300    -0.01812
    2     0.14201    -1.25407    -0.03873
    3    -0.01057     0.02869    -1.19047
 ion   17
    1     0.37140     0.02219    -0.06656
    2     0.06904     0.40095    -0.32096
    3    -0.17029    -0.30415     1.02344
 ion   18
    1     0.37141     0.02220    -0.06660
    2     0.06903     0.40095    -0.32096
    3    -0.17029    -0.30418     1.02350
 ion   19
    1     0.37141    -0.02220    -0.06660
    2    -0.06904     0.40095     0.32096
    3    -0.17029     0.30418     1.02350
 ion   20
    1     0.37140    -0.02219    -0.06656
    2    -0.06903     0.40095     0.32096
    3    -0.17029     0.30415     1.02344
 ion   21
    1     0.42898     0.20951    -0.00497
    2     0.13958     1.06769    -0.06598
    3     0.02273     0.05155     0.26645
 ion   22
    1     0.42899     0.20952    -0.00497
    2     0.13958     1.06771    -0.06598
    3     0.02272     0.05156     0.26646
 ion   23
    1     0.42899    -0.20952    -0.00497
    2    -0.13958     1.06769     0.06598
    3     0.02272    -0.05156     0.26646
 ion   24
    1     0.42898    -0.20951    -0.00497
    2    -0.13958     1.06771     0.06598
    3     0.02273    -0.05155     0.26645


--------------------------------------------------------------------------------------------------------


     LOOP+:  cpu time 1124.6641: real time 1125.1022
    4ORBIT:  cpu time    0.0000: real time    0.0000

 total amount of memory used by VASP MPI-rank0   203365. kBytes
=======================================================================

   base      :      30000. kBytes
   nonl-proj :     151345. kBytes
   fftplans  :       3508. kBytes
   grid      :       9633. kBytes
   one-center:        373. kBytes
   wavefun   :       8506. kBytes
 
  
  
 General timing and accounting informations for this job:
 ========================================================
  
                  Total CPU time used (sec):     1134.190
                            User time (sec):     1126.851
                          System time (sec):        7.339
                         Elapsed time (sec):     1142.876
  
                   Maximum memory used (kb):      463136.
                   Average memory used (kb):           0.
  
                          Minor page faults:       287777
                          Major page faults:            0
                 Voluntary context switches:         3156
